280
 energy: -72.189838867659 gnorm: 0.000847016014 xtb: 6.5.1 (fef0646)
O          -24.93563134664689      -28.25194646356198      -17.00563383458892
C          -24.34059159841031      -27.28803395749420      -16.53710629611448
N          -24.73192512888413      -25.95804637039425      -16.84113444713632
C          -26.01814530880025      -25.50645268061084      -17.23503862393678
C          -27.12425204557838      -26.28707087624488      -16.96674455101437
C          -28.41690112023466      -25.81614848537660      -17.17958631842030
C          -28.62869925120736      -24.56555656137532      -17.69616295102582
C          -27.56025974015594      -23.72474195693785      -18.06107478847998
C          -26.23480625127311      -24.19770007594740      -17.80096658067916
C          -25.14755897243477      -23.35934657090786      -18.11068485546160
C          -25.35140108138581      -22.11124582906849      -18.62851656195842
C          -26.63762559690266      -21.64803601900363      -18.88383586320115
C          -27.76357247986101      -22.41656672375818      -18.64478328962029
N          -29.00304467560233      -21.81597659961898      -19.00515444329201
C          -30.27573746721317      -22.28099304122230      -19.38244207432855
C          -31.27392726598745      -21.30080093599635      -19.86280820584043
C          -31.03493780397336      -19.88121557457717      -20.08368510771770
O          -29.91483932835160      -19.23546587543312      -19.86004644409199
C          -32.15685900504780      -19.07665017260611      -20.62486568582678
O          -31.97095821155260      -17.79875550081041      -20.86166140752512
C          -33.40762319693961      -19.70000689975816      -20.88182617215482
C          -33.58679490126934      -21.03366403849463      -20.63193671949248
C          -32.53705415965526      -21.80635249808328      -20.13938728727906
O          -30.59400963003755      -23.46376298109366      -19.34259012765740
C          -23.30311973622350      -27.48581589715405      -15.47047212335094
C          -22.14178283660522      -28.37373266077913      -15.55178825377007
O          -21.41276993739104      -28.51086622888602      -16.63236174860955
C          -21.73036130634432      -29.04599510540664      -14.29178664047134
O          -21.10711510515424      -30.11561723466902      -14.27501563130939
C          -22.11862621056869      -28.41915517655642      -13.06918024141465
C          -23.00848261581528      -27.37921411733666      -13.05012194549549
C          -23.63085454580398      -26.96108700887988      -14.22509784192327
H          -24.05617644592259      -25.24276070328555      -16.58772897113471
H          -26.96960173554869      -27.26466307361438      -16.54303295631277
H          -29.26069347561599      -26.44067413660913      -16.91883666165866
H          -29.63152617085008      -24.20346970782303      -17.82179993717671
H          -24.14352249833667      -23.71354866979980      -17.95078434004854
H          -24.50539526681867      -21.48026962288732      -18.85440332895914
H          -26.76791162931231      -20.66667421735377      -19.30952875454079
H          -28.93179693245370      -20.81499402667306      -19.19184271838699
H          -34.21509199104029      -19.10007718720535      -21.26891754356235
H          -34.54940258427176      -21.49318274055805      -20.82198353595841
H          -32.70662275304836      -22.85654044552202      -19.96707478825462
H          -21.72875439593205      -28.81893484826544      -12.14779497794464
H          -23.30180472586514      -26.94198329848341      -12.10603933402459
H          -24.45493353008063      -26.26805363715709      -14.16594661857891
O          -17.01990609086334      -29.35158786914534      -22.13045532167072
C          -17.97713005141631      -28.66520650326017      -21.77922027639078
N          -18.02808095358348      -27.27530523295860      -22.08887414197869
C          -17.50263763520201      -26.69798669925901      -23.27792135707720
C          -17.27774451318625      -27.51573281072201      -24.36880539906803
C          -16.88842702043276      -27.00648634713939      -25.60387770631449
C          -16.69139831469588      -25.66315450703715      -25.77035856290617
C          -16.84554674221650      -24.76296173561044      -24.69913595473620
C          -17.27515925158499      -25.28227383943057      -23.44052985511743
C          -17.44142867796799      -24.37856081714957      -22.37524661808529
C          -17.18871536388986      -23.04294081559343      -22.54331463247155
C          -16.76361709522312      -22.53309505715378      -23.76564987536372
C          -16.58516746460307      -23.35162920228503      -24.86649362108390
N          -16.15079257024211      -22.80300003295940      -26.11464426821293
C          -15.06518398842515      -23.26401410466335      -26.87659420409977
C          -14.73509395294385      -22.68039229856310      -28.19382640455720
C          -15.35730914469752      -21.52239912656816      -28.81638974898685
O          -16.47051628169780      -20.99342139402551      -28.37491571396122
C          -14.68823405785693      -20.97401096677556      -30.02705212712157
O          -14.94846011536820      -19.85875739381053      -30.49467763725691
C          -13.67398064179372      -21.75776096754374      -30.65620838314388
C          -13.21455065279834      -22.91372749743692      -30.09606356678702
C          -13.71778941450197      -23.33500026498080      -28.87062400954088
O          -14.35591730626705      -24.17104331595270      -26.45220333563907
C          -19.19258838696317      -29.35441751736027      -21.22434093666080
C          -19.59630681262314      -29.43609210357648      -19.82654770108041
O          -19.06180880021890      -28.79096870389082      -18.82017855002014
C          -20.72100004664038      -30.33690948266798      -19.49154804457555
O          -21.09188340964306      -30.45922191829372      -18.23969268193818
C          -21.37966237543687      -31.04968474843783      -20.52659535911485
C          -20.97183454503017      -30.92746692357247      -21.82699740468141
C          -19.89944879866752      -30.10356565098998      -22.15763001911883
H          -18.69790872455974      -26.72391659916233      -21.55878520238507
H          -17.44417807650931      -28.57334852469630      -24.25588646811664
H          -16.74612829920783      -27.67939050873837      -26.43786845563650
H          -16.38923143408615      -25.27504267757177      -26.72795187353956
H          -17.74924190648050      -24.75294223336667      -21.41354683574025
H          -17.30752081366593      -22.37153182161796      -21.70684074185925
H          -16.44514844894839      -21.36947133087302      -23.76501481673118
H          -16.59851378361586      -21.95264622800977      -26.46350789369466
H          -13.24370383852730      -21.39222835624676      -31.57493248303221
H          -12.43164792868735      -23.48092873479661      -30.58470450553425
H          -13.29605445063148      -24.21557164309264      -28.41458631092332
H          -22.20152964678855      -31.69446418380815      -20.26466708831422
H          -21.47443506640412      -31.48942439514687      -22.60277213810318
H          -19.57921307505369      -30.05371428864619      -23.18606751767502
O          -15.43325837731968      -28.24864922257695      -13.17719873527213
C          -16.25876904720471      -28.15148231929104      -14.08140759720792
N          -16.83940496540183      -26.91639447394166      -14.42460053257883
C          -16.51200516397057      -25.65593305158607      -13.86193083203373
C          -15.83777989499534      -25.60555781190647      -12.65659116417123
C          -15.40907726024782      -24.41093294686009      -12.08858413630285
C          -15.66509374127088      -23.22119554255537      -12.70929552183990
C          -16.38515658047962      -23.16815921442875      -13.91671970506732
C          -16.80038229668483      -24.40030305073764      -14.51318581610558
C          -17.44938349690864      -24.34543263406934      -15.76193297630765
C          -17.66773616998501      -23.14765371348647      -16.38805187931027
C          -17.26821637909200      -21.94771906330241      -15.80517321493226
C          -16.65094499366219      -21.90949027758001      -14.56977133281665
N          -16.27981415305321      -20.63920445737880      -14.04380148937740
C          -16.35965020555066      -20.17560964074984      -12.72004660005954
C          -15.77745323601678      -18.86323612593227      -12.36077604120406
C          -15.60713977032808      -17.73406028149876      -13.25721043451211
O          -15.86683622529613      -17.79041462833064      -14.53917598535776
C          -15.12356974829729      -16.46697852770890      -12.66310585354486
O          -15.07195266970685      -15.41613015503561      -13.30964675321147
C          -14.73182191535625      -16.46094774114412      -11.29051067631818
C          -14.86376427097012      -17.56823113414828      -10.50330286587877
C          -15.39860727504048      -18.73693152083107      -11.03403467539583
O          -16.86833920275603      -20.85139336088042      -11.83169972814240
C          -16.58749084051069      -29.36986161572126      -14.84905013119579
C          -17.70756481369468      -29.53310603160127      -15.75853407687605
O          -18.63584486027342      -28.64911429786065      -16.02967049363517
C          -17.84520978584490      -30.83965444354413      -16.43212263888247
O          -18.85942672100707      -31.02677364703683      -17.24101206747275
C          -16.90773089322783      -31.87420043877895      -16.17574142798668
C          -15.87791427725723      -31.67532105864043      -15.29715072386312
C          -15.73287722504555      -30.44820550013634      -14.65457992451488
H          -17.55499860110433      -26.97268253725061      -15.14849549667118
H          -15.63545199730142      -26.52928152005434      -12.14540850015865
H          -14.86561334190304      -24.42693654283103      -11.15350188404623
H          -15.32080079485273      -22.29984395934234      -12.27320273549281
H          -17.76426393568478      -25.25898371663115      -16.23651394671119
H          -18.15940207287982      -23.13065885879490      -17.34862135918016
H          -17.45745318812217      -21.01617852625979      -16.31205221308545
H          -16.06051174202203      -19.90415930175733      -14.71919894449659
H          -14.34791257003028      -15.54319267662055      -10.87584429927010
H          -14.56999951273139      -17.53209028177240       -9.46132760607991
H          -15.52418276027152      -19.59170333164601      -10.38961824511170
H          -17.03127114973529      -32.82180734085494      -16.67428994471334
H          -15.17454531368947      -32.47503978972230      -15.09766389588919
H          -14.90873240289640      -30.32013670012872      -13.97181343763711
O          -29.40743317072316      -17.33500185452078      -25.47286908048558
C          -28.57787218323893      -16.80977230245398      -24.73645041817510
N          -27.19037587730497      -17.08846683093709      -24.86029279373835
C          -26.49699572586766      -17.50205901870060      -26.02761516046845
C          -27.08903512827616      -17.33659848452988      -27.26367621192284
C          -26.39501519390823      -17.58119576996021      -28.44575288798982
C          -25.10071622731765      -18.02737119205000      -28.41618017792156
C          -24.43561933635135      -18.28093272036501      -27.20179751793335
C          -25.13816809816576      -17.98574597332091      -25.99030841895209
C          -24.47049225824358      -18.17385944396534      -24.76534534745207
C          -23.17332569100127      -18.60407036255713      -24.73309581930381
C          -22.48875848389599      -18.89498872872493      -25.90861590778145
C          -23.07902741980972      -18.78149081145709      -27.15491243748053
N          -22.28019703811961      -19.19128263020428      -28.26327574385299
C          -22.58659469309869      -19.83763354616626      -29.47530254406435
C          -21.50223263646642      -20.49596124314138      -30.23625380414687
C          -20.07967542195787      -20.45566528901908      -29.92460516748118
O          -19.49609327378553      -19.78398538693904      -28.95878022819501
C          -19.17631288888902      -21.26571112038897      -30.77666786964499
O          -17.89311171020216      -21.27993772240471      -30.49784679521236
C          -19.70786763223952      -22.01438019338721      -31.85990154425049
C          -21.04783307352338      -21.98423801710526      -32.13350416108910
C          -21.91317765608410      -21.24237702035596      -31.33265732096699
O          -23.73000386947036      -19.91458595533691      -29.91044741611341
C          -28.99691199623133      -15.68425022627692      -23.82747812694581
C          -29.72880274911542      -15.80198326083116      -22.57005254870507
O          -29.70931388170024      -16.88437816278558      -21.83242847550842
C          -30.47218951493016      -14.60228412914011      -22.10864403960300
O          -31.35160289860460      -14.64962357986914      -21.23857154429892
C          -30.17288393382579      -13.35221473528897      -22.72964242730764
C          -29.33782739298886      -13.26690057107772      -23.80776465826947
C          -28.79315638708234      -14.41961703305799      -24.36358221214388
H          -26.62254582942797      -16.78418541410631      -24.07500639271590
H          -28.10060332895583      -16.97007506713319      -27.30093242200730
H          -26.88152026377234      -17.40347621098451      -29.39542325954425
H          -24.56703816623171      -18.18940423818025      -29.33496419649579
H          -24.99325580999229      -17.98760421068356      -23.84282460602563
H          -22.67662388196742      -18.73507107644596      -23.78386100752275
H          -21.47490780641648      -19.25552491913694      -25.85330345392286
H          -21.27931518634550      -19.24496096610925      -28.06850496029739
H          -19.03353625838630      -22.59376416726290      -32.46856913694199
H          -21.44001309142411      -22.54598821490136      -32.97213806627186
H          -22.96620041894231      -21.25862626149054      -31.56062016749997
H          -30.65831578242348      -12.46807602264116      -22.34920340968568
H          -29.15189723400455      -12.30691850527580      -24.27133894914585
H          -28.22929419552620      -14.34375201016565      -25.28005678198674
O          -27.38135042374050      -13.69246410587492      -16.93104250644832
C          -27.19018131240253      -14.89939031527659      -17.05873040133806
N          -25.87768100953753      -15.42734256889953      -17.17146577176283
C          -24.69511871639139      -14.83557958821836      -16.65565322118532
C          -24.79623262531716      -13.84176269325880      -15.70197999613857
C          -23.67573655363916      -13.31764669216393      -15.06414712754321
C          -22.42125990606972      -13.75852720964600      -15.38716152915435
C          -22.21821665548886      -14.72996722889344      -16.38466661673602
C          -23.37456018328234      -15.29722275189842      -17.00711392482220
C          -23.18956922963714      -16.31650660021755      -17.96016828962512
C          -21.93638040827580      -16.77005055318777      -18.26679165540240
C          -20.80967805514690      -16.21761492714278      -17.66558504996592
C          -20.89629586560305      -15.18450176793070      -16.75009176664454
N          -19.66508559310740      -14.67019665062604      -16.25147202484123
C          -19.26022296820143      -13.36652733453151      -15.91752348354328
C          -17.83284616573573      -13.09400231336066      -15.63490563153649
C          -16.72049897342927      -14.00176022924579      -15.87946766534342
O          -16.86095096200371      -15.28659379155117      -16.08871956282264
C          -15.35599280523432      -13.42018421709301      -15.85842242603253
O          -14.38547127317894      -14.00949125507485      -16.34565696478704
C          -15.18916482158767      -12.11787322482888      -15.29881313704436
C          -16.26328673168061      -11.35521133852302      -14.93696715307599
C          -17.55642133664715      -11.82748624991539      -15.14426024835524
O          -20.04851872776607      -12.42855818594890      -15.87610224681975
C          -28.35127723997435      -15.83861892954363      -16.87917058856263
C          -29.15864948102932      -16.44573778046538      -17.92957921765447
O          -28.89959126029321      -16.49048011757568      -19.21256484270318
C          -30.43756035800709      -17.06180218487826      -17.53042456672062
O          -31.24830560384680      -17.47634353030621      -18.47442344846544
C          -30.78107586870603      -17.14982391320288      -16.15732728766046
C          -29.95455434016722      -16.62659295739246      -15.19972124775241
C          -28.77894497474438      -15.97368933248591      -15.56207182989564
H          -25.82206539701809      -16.39658625804875      -17.47003354444702
H          -25.77769210781499      -13.49698504166622      -15.42583468593996
H          -23.80140934047931      -12.56269266447397      -14.30002477991223
H          -21.56213901728135      -13.36233853274839      -14.87598961992413
H          -24.04667514762567      -16.73809527503111      -18.45680309995033
H          -21.81621503235030      -17.56009256945585      -18.99218513324253
H          -19.83206969527464      -16.58036270231871      -17.93684707954624
H          -18.86697786204678      -15.30073025802673      -16.33553238424965
H          -14.18921931609400      -11.72662769363750      -15.21044651870797
H          -16.11071797677695      -10.36147472411098      -14.53442423274147
H          -18.38764856604614      -11.17591391877741      -14.93001755825043
H          -31.71071135134123      -17.62203809736122      -15.88563867656904
H          -30.23413665156862      -16.68812751941390      -14.15605655161248
H          -28.18078508854088      -15.51369940173631      -14.79134979228508
O          -15.00946909474474      -14.62033880528333      -27.63686356849153
C          -15.64399297447010      -15.67040724780607      -27.67826990705807
N          -15.79524829732929      -16.49877073593242      -26.55202626834769
C          -15.43542794133181      -16.19241101784546      -25.22136148186943
C          -15.08297608500814      -14.89673084126629      -24.89586473305695
C          -14.72511046864679      -14.52224756140778      -23.60528709851206
C          -14.70411727192042      -15.44753450563682      -22.60087092187324
C          -15.04134954969675      -16.79054291604478      -22.84636283854780
C          -15.43885427084511      -17.17155004184587      -24.16316957151588
C          -15.82963109907404      -18.50925982124560      -24.37500562944064
C          -15.84350756669340      -19.40734957550055      -23.34608891136727
C          -15.45019586832456      -19.03702791634649      -22.06143481509828
C          -15.01437045699941      -17.75246865483310      -21.77645352560154
N          -14.49681920302971      -17.42595553164971      -20.47949850695791
C          -13.22028598528407      -16.89084162333631      -20.23654426478294
C          -12.68611469451826      -16.77291339033696      -18.86423083497377
C          -13.39741446230414      -17.05125420313530      -17.62326247311769
O          -14.70363047287460      -17.09852685579892      -17.51261146212676
C          -12.56568312243351      -17.24174992538502      -16.40660834939781
O          -12.99579251082768      -17.83636227958290      -15.41311444018828
C          -11.21831071766642      -16.77271534999373      -16.43189509978279
C          -10.64289225323450      -16.33604763233956      -17.59115683360004
C          -11.35750622992709      -16.38415758675247      -18.78527400839730
O          -12.49327057963377      -16.57050198476005      -21.17166371456896
C          -16.28119208649175      -16.05529275238523      -28.95025071634271
C          -16.88253255692999      -17.34631954918600      -29.21805609695704
O          -16.97936250015147      -18.34513874128240      -28.37651857600348
C          -17.43395308617737      -17.57552983754885      -30.56729473695605
O          -17.93161088291426      -18.75634937902237      -30.84638061566147
C          -17.40218030891077      -16.53008983103586      -31.52668600831684
C          -16.83309190870595      -15.32261134455185      -31.22086028421009
C          -16.28075115291012      -15.10276421948495      -29.96041043108329
H          -16.24171197470221      -17.39226106160822      -26.74716116495896
H          -15.10237840932712      -14.15205954403429      -25.67092668232442
H          -14.46047209997817      -13.49501675484961      -23.39911376434801
H          -14.41825749698029      -15.16447278458418      -21.60160783545315
H          -16.12636288290652      -18.82959726401973      -25.35872490022656
H          -16.18976210578654      -20.53870038188143      -23.59821454442130
H          -15.44459300407228      -19.76953706908458      -21.27272338999060
H          -15.00859900897640      -17.71367390501294      -19.64398734710175
H          -10.64368970392290      -16.82356501549313      -15.52215163848696
H           -9.61082821404269      -16.00949034848652      -17.59364283689645
H          -10.85350302830115      -16.12602086836825      -19.70190505342399
H          -17.82019240987952      -16.71041275810814      -32.50344311522852
H          -16.80370677213302      -14.53593442061515      -31.96495737330126
H          -15.83133310050770      -14.14572427262988      -29.75152382117919
Ga         -19.86014190180809      -29.44389508379970      -17.24096218111861
Ga         -15.63685310942885      -16.65879314302395      -15.98091273767453
Ga         -17.63906983601549      -19.83307102350699      -29.33245139478958
Ga         -30.30150179054256      -17.40593001754107      -20.09894696905819
