830
	Energy:   11565.2130490
C         -3.70227       -0.53150       -0.77828
C         -3.17878        0.75966       -0.94175
C         -1.83792        1.01391       -0.59627
N         -1.03764       -0.00123       -0.13883
C         -2.88281       -1.52278       -0.20797
C         -1.54426       -1.20537        0.11588
H         -1.44175        2.00572       -0.75467
H         -4.73598       -0.72506       -1.05201
H         -3.80185        1.55360       -1.34583
C         -3.27125       -2.82948        0.08421
C         -2.41141       -3.70226        0.71619
C         -1.16083       -3.35439        1.16997
C         -0.72309       -2.07982        0.84141
N          0.50170       -1.65586        1.23398
C          1.32728       -2.44431        1.97513
C         -0.33755       -4.19851        1.92230
C          0.90760       -3.73054        2.34811
H          2.30938       -2.09255        2.24881
H         -0.65534       -5.19731        2.19749
H          1.54554       -4.37311        2.93896
N         -4.43162       -3.45547       -0.17033
C         -4.17744       -4.71378        0.27259
N         -2.97261       -4.88671        0.80818
C         -5.02366       -5.83590        0.14290
C         -4.65227       -6.83059       -0.77677
N         -5.47953       -7.88383       -0.96478
C         -6.59867       -8.01458       -0.18247
C         -6.94387       -7.06935        0.78673
C         -6.16434       -5.94011        0.92365
H         -3.79053       -6.67280       -1.41899
H         -7.24926       -8.85369       -0.31350
H         -7.83118       -7.18774        1.39430
H         -6.43105       -5.16465        1.63841
H         -2.57876       -5.77268        1.19118
C          9.13874       -3.05494       -1.50169
C          3.93031       -0.47711        0.17126
C          6.12876       -1.36110       -0.35563
C          5.33884       -0.42088        0.35358
C          2.13483       -3.38268       -2.21692
C          1.36509       -2.44654       -1.50343
C          5.57288       -2.27251       -1.22039
C          3.34756       -1.41612       -0.70710
C          4.16715       -2.35768       -1.39308
C          7.72420       -2.52676       -1.24978
C          4.99225        1.54588        1.74226
C          9.94140       -2.99214       -0.36079
C          3.61504        1.47779        1.47947
C         11.22813       -3.46553       -0.39301
C          5.85959        0.58626        1.18945
C          9.73307       -3.61927       -2.72686
C         11.76447       -3.97487       -1.57241
C          3.53653       -3.32563       -2.18141
N          1.98021       -1.43820       -0.81897
N          3.11235        0.43272        0.76536
N          6.57023       -2.99677       -1.79783
N          7.47105       -1.52536       -0.34531
N         11.08221       -4.05929       -2.75985
H          6.92430        0.66650        1.38200
H          2.94850        2.21543        1.90889
H          6.47760       -3.77100       -2.48883
H          9.56394       -2.60551        0.58741
H         11.82142       -3.43572        0.51405
H          9.09716       -3.67302       -3.60064
H         12.77716       -4.30157       -1.51067
H          1.64636       -4.15094       -2.80320
H          0.28779       -2.49777       -1.56392
H          5.38382        2.34382        2.36689
H          4.11390       -4.05868       -2.73176
C         -0.16414        8.52002       -1.24499
C          1.14644        2.91954       -0.56829
C          0.84760        5.21366       -0.92500
C          1.24618        4.00343       -1.43088
C         -0.84799        3.11597        3.06128
C         -0.44930        1.88898        2.48922
C          0.34155        5.38659        0.34337
C          0.61408        3.03828        0.72330
C          0.16855        4.28951        1.20791
C          0.18655        7.19467       -0.76324
C          1.87323        2.50101       -3.22151
C         -0.31563        9.59713       -0.38452
C          1.75669        1.44529       -2.31866
C         -0.51318       10.85644       -0.93532
C          1.62428        3.80061       -2.77257
C         -0.27201        8.70774       -2.64428
C         -0.52735       11.01514       -2.33153
C         -0.52521        4.32889        2.42559
N          0.33175        1.88297        1.37065
N          1.40928        1.69679       -1.02736
N         -0.04407        6.66926        0.47199
N          0.75585        6.33058       -1.61817
N         -0.41749        9.94712       -3.17633
H          1.67130        4.61988       -3.48050
H          1.90571        0.42752       -2.65254
H         -0.50334        7.12182        1.29403
H         -0.23263        9.47281        0.69149
H         -0.61345       11.71089       -0.28133
H         -0.10885        7.87361       -3.31742
H         -0.68582       11.99548       -2.72342
H         -1.43171        3.12670        3.97578
H         -0.71691        0.95709        2.97015
H          2.11829        2.30755       -4.25941
H         -0.89084        5.26293        2.83936
Ru         1.05128        0.15893        0.30694
H          3.18705       13.56439       -2.95983
C          3.08873       12.70946       -3.61507
H          5.21016       12.51101       -3.89354
C          4.22732       12.12876       -4.14763
H          1.00943       12.66996       -3.46194
C          1.82631       12.16843       -3.90297
H          9.26919       10.02497       -4.18285
H         11.41342        8.79004       -4.24017
H          6.93322       10.90804       -4.32124
C          9.45715        9.31609       -4.98434
C         10.66952        8.60238       -5.00914
C          4.07907       11.06044       -5.01491
N          6.52141       10.36965       -5.11776
N          1.66670       11.12092       -4.77637
C          5.22462       10.34243       -5.55339
C          2.78284       10.60737       -5.36287
C          8.47744        9.01197       -5.94008
C          7.14753        9.49233       -5.92782
C         10.90079        7.62235       -6.00400
H         11.82902        7.06634       -5.99545
N          5.01975        9.48862       -6.56174
C          8.79273        8.07022       -6.95636
H          2.66619        9.74401       -6.01042
C          6.21100        8.98063       -6.79465
N          9.98525        7.42495       -7.00187
H         10.17080        9.16941       -9.22646
H         10.48996       10.53531      -11.28056
H          7.88407        3.83688       -4.27905
H          8.15603        5.59600       -5.99205
C          8.67144        3.75640       -5.02162
C          7.79337        7.59363       -7.81440
C          8.83818        4.76015       -5.98939
C         10.27017        8.68093      -10.19200
C          6.47452        8.00976       -7.71753
C         10.45511        9.44933      -11.36049
C          9.52085        2.64244       -5.02915
H         16.45484       -1.76100       -3.32990
H          9.39443        1.87248       -4.27470
H         15.29942        0.08777       -4.48622
N          9.79842        4.62853       -6.95574
Ru        10.05313        5.95677       -8.60407
C         10.56534        2.59440       -5.96740
N         10.30055        7.32160      -10.26384
C         10.68092        3.62679       -6.91671
C         15.46046       -1.92504       -3.72125
N          8.09814        6.60231       -8.65151
C         14.81443       -0.87691       -4.37113
C          5.47902        7.37983       -8.48653
C         10.59052        8.81915      -12.62373
N         11.86550        4.83068       -8.57394
C         11.79006        3.74114       -7.76295
C         11.55719        1.61965       -5.99323
N         11.67883        0.54322       -5.20121
H          4.43490        7.65534       -8.39715
H         10.71508        9.44563      -13.50348
C         12.93653        5.03041       -9.38942
C         12.81566        2.78286       -7.73183
C         12.64743        1.72050       -6.83158
H         12.96044        5.88748      -10.04869
C         12.87857        0.03362       -5.56201
C         14.82442       -3.17550       -3.61824
C         10.34991        6.68863      -11.47847
C         13.99374        4.10149       -9.39004
C         13.52523       -1.05846       -4.85354
C          7.17326        5.94893       -9.40107
C         13.92964        2.96455       -8.56607
H         15.35687       -3.98175       -3.16149
N         13.48277        0.71681       -6.56290
C         10.49723        7.40809      -12.71826
C          5.83514        6.32642       -9.33011
H         14.85208        4.25054      -10.03506
H         14.74516        2.24887       -8.58106
H         14.41001        0.52115       -7.00141
N         10.02611        4.64010      -10.28444
C         10.14677        5.29205      -11.47959
N         13.54653       -3.32378       -4.07539
C         12.89217       -2.27565       -4.65670
H          7.47420        5.11761      -10.02212
C         10.51394        6.62297      -13.94062
H          5.08665        5.79023       -9.89952
C          9.98619        3.27900      -10.23070
H          9.91598        2.76393       -9.28928
N         10.70659        6.95766      -15.26097
H         11.89517       -2.42650       -5.06406
C         10.14427        4.56727      -12.68921
C         10.31814        5.26253      -13.88730
H         11.81095        7.43990      -17.66887
C          9.94176        2.53255      -11.40918
C         10.60804        5.75777      -15.95863
C         10.00600        3.17723      -12.64144
C         11.49501        6.51891      -18.16242
N         10.35427        4.73819      -15.12554
C         10.83997        5.51105      -17.45872
H          9.85714        1.45629      -11.37021
H         12.32210        7.12417      -20.02719
C         11.78631        6.33703      -19.50415
H          9.98098        2.58035      -13.54145
H         10.25932        3.74105      -15.40145
C         10.46560        4.28648      -18.19938
C         11.39071        5.16618      -20.18072
H          9.94613        3.51665      -17.64906
N         10.71416        4.12628      -19.58109
H         11.63945        5.10946      -21.22652
Pd        12.36773       -4.94919       -4.28049
H        -12.47664        0.50149      -20.13790
H         -9.32626        2.99158      -23.27744
H        -10.63260       -0.37117      -21.51539
H         -9.21294        0.56160      -22.88432
C        -11.50983        0.30167      -19.69707
C         -8.50618        2.56229      -22.71664
C        -10.44818       -0.18313      -20.47566
C         -8.42724        1.18133      -22.49549
C        -11.34812        0.49565      -18.33631
C         -7.55748        3.40324      -22.16839
H        -12.18945        0.84265      -17.74238
H         -7.64906        4.47713      -22.31113
N         -9.21157       -0.43102      -19.94873
N         -7.41313        0.60578      -21.77978
C        -10.11164        0.24854      -17.75319
C         -6.50884        2.85293      -21.44028
C         -9.02661       -0.19729      -18.59125
C         -6.43307        1.42590      -21.26626
H        -12.01346        0.34749      -15.50397
H         -6.34592        5.76628      -20.94203
C         -9.96878        0.42797      -16.27904
C         -5.50962        3.74546      -20.82786
N        -10.98497        0.45580      -15.34912
H         -8.07265       -0.41349      -18.12280
H         -5.64869        1.01444      -20.64213
N         -5.57479        5.11170      -20.67797
H        -12.98480        0.23261      -13.16956
N         -4.37882        3.21917      -20.34289
N         -8.75338        0.54447      -15.71620
C        -10.36137        0.59444      -14.15671
H         -5.55401        8.03009      -20.05404
C        -12.19554        0.35031      -12.43332
C         -4.40600        5.43990      -20.08693
H        -13.51795       -0.05552      -10.76331
C        -10.86174        0.58610      -12.81412
C         -9.00952        0.66342      -14.40910
C         -4.56253        7.92509      -19.62418
C         -3.69936        4.27132      -19.90611
C        -12.49888        0.16905      -11.06546
C         -3.88875        6.68978      -19.62575
C         -3.96412        9.03582      -18.98409
H          0.24134        7.67131      -23.02789
H         -4.48573        9.98835      -18.95489
C         -2.46853        4.22158      -19.30931
C         -8.06848        0.75833      -13.40487
C         -9.89949        0.73389      -11.77487
C        -11.48001        0.24141      -10.08824
H         -2.20275        2.05845      -19.30449
C         -2.58581        6.65601      -19.06446
C          0.77284        7.46116      -22.10554
H         -0.94597        7.73707      -20.85460
H         -6.28101        0.62858      -14.63952
C         -1.78701        3.02258      -19.03624
C         -8.54324        0.82151      -12.08853
C         -6.68355        0.71307      -13.63757
C         -1.91237        5.43967      -18.92586
N        -10.21169        0.58613      -10.45091
C          0.10425        7.48940      -20.87005
C         -2.69430        8.91456      -18.37216
H        -11.72090        0.08214       -9.04384
H         -9.97711        3.24901      -10.50169
H         -9.01786       -4.16262      -11.04675
H         -8.98271       -1.70206      -11.23187
H          2.64779        7.11227      -23.10393
H         -9.68794        5.72304      -10.37166
N         -2.00403        7.74545      -18.48314
C          2.13602        7.15543      -22.14681
C         -8.88119       -3.54965      -10.16276
C         -8.87072       -2.15119      -10.25982
C         -9.15127        3.66366       -9.94171
C         -8.99535        5.05954       -9.86504
C         -0.56656        3.07326      -18.36301
H         -2.23733        9.77309      -17.89359
N         -7.67416        0.83003      -11.07327
N         -0.73614        5.45142      -18.30360
C         -5.80700        0.71833      -12.54997
N          0.79944        7.29611      -19.70741
H         -2.65481        6.16565      -16.36171
C         -0.05187        4.31533      -17.99824
H         -0.02998        2.16576      -18.11578
C          2.79887        6.84761      -20.95166
C         -8.69771       -4.14953       -8.91492
C         -6.32964        0.77573      -11.25962
N         -8.65147       -1.38571       -9.14686
Ru        -8.46790        0.72776       -9.14885
H         -8.70541       -5.23173       -8.83526
N         -8.32660        2.84707       -9.22382
H         -4.73702        0.64784      -12.69787
Ru        -0.01042        7.31362      -17.74305
C          2.09740        6.92850      -19.72531
C         -2.12291        6.67899      -15.57887
C         -7.93391        5.59879       -9.12927
H         -3.54624        6.11201      -14.05050
N          5.01293        6.33423      -21.90440
H         -7.80072        6.67665       -9.08467
C          4.12476        6.42898      -20.89615
C         -8.58105       -1.93794       -7.93226
C         -2.62497        6.63626      -14.27061
C         -8.57797       -3.33002       -7.78336
N         -0.93837        7.30582      -15.83954
H          0.88630        4.37201      -17.46762
H         -5.66852        0.74490      -10.40599
C         -7.25629        3.34172       -8.55782
C         -7.02573        4.73018       -8.50926
N         -8.76818        0.25672       -7.06836
C          2.69928        6.53397      -18.50352
C         -8.64702       -1.07603       -6.82817
C          6.12595        5.85051      -21.29698
C         -8.48898       -3.80603       -6.49230
C          7.79976        6.26573      -23.12382
N          1.99031        6.66256      -17.34465
H          7.18212        7.07161      -23.52459
N          1.03822        8.85305      -16.63704
C          4.70499        6.03467      -19.71673
C          7.39874        5.57183      -21.98523
C         -1.92059        7.27016      -13.24630
N         -8.41882       -5.07940       -6.11489
N         -6.63895        1.10321       -8.04751
H          2.32919        9.61173      -18.14752
C         -0.30113        7.99892      -14.89333
C          9.02640        5.93535      -23.71637
C         -8.84318        1.14376       -6.03076
C         -6.33341        2.43261       -7.99973
C          8.22906        4.56751      -21.47630
H          9.34526        6.51485      -24.57786
C          2.05484        9.64054      -17.10189
H         -8.88881        2.20590       -6.22345
C          4.03590        6.08853      -18.48590
C          9.81186        4.86374      -23.19684
C         -8.61196       -1.58749       -5.51385
N          9.39843        4.18696      -22.07265
C          0.74121        8.83218      -15.30856
N          5.95491        5.64247      -19.96915
C         -5.87325        5.16563       -7.86083
C         -8.49671       -2.97772       -5.39266
H          7.89671        4.01495      -20.60810
H        -10.47563       -6.13889       -3.66377
C         -0.76212        7.98440      -13.57035
H         -2.30904        7.25122      -12.23304
H         10.74551        4.62925      -23.67925
C         -8.36723       -4.99473       -4.77355
C         -9.54374       -6.66744       -3.48115
N         -5.49321        6.43092       -7.66335
C         -5.86779        0.19852       -7.37105
C          2.58831        6.45841      -16.13261
C         -8.82230        0.67665       -4.69889
H         -6.11327       -0.85238       -7.37479
H        -10.47248       -8.25503       -2.39951
C         -8.69490       -0.69582       -4.43751
C         -9.54279       -7.85940       -2.78205
N         -8.41944       -3.73288       -4.29179
C         -8.34144       -6.17688       -3.97111
C         -5.16371        2.90621       -7.33785
C          2.77659       10.46668      -16.21091
C         -4.95181        4.30644       -7.31671
C          4.62487        5.76680      -17.25528
H          2.04288        6.59136      -15.21182
C          1.42467        9.64373      -14.37659
H          6.65487        5.28805      -19.28338
C         -0.06474        8.74527      -12.66295
C          3.90275        5.97344      -16.07412
H         -8.88176        1.37126       -3.86787
H          3.58751       11.09103      -16.57600
C          2.46227       10.47061      -14.83964
C         -8.33689       -8.53614       -2.58762
C         -7.14441       -6.86232       -3.75251
C         -4.30702        6.33590       -7.01216
C         -4.68394        0.61215       -6.73551
C          0.97978        9.55684      -13.04196
H         -8.66594       -1.04769       -3.41012
H         -8.40813       -3.42937       -3.29278
C         -4.31892        1.96683       -6.73202
H         -5.64360        8.38048       -6.12617
N         -0.32890        8.87228      -11.35885
H          5.64206        5.40046      -17.19307
N         -7.15332       -8.03118       -3.05277
N         -3.94190        5.04172       -6.78827
H         -8.36056       -9.45449       -2.03807
H         -6.21747       -6.45941       -4.14899
C         -4.56864        8.50422       -6.00052
C         -3.64713        7.55257       -6.45597
H          4.36037        5.75660      -15.11618
H         -4.04830       -0.11903       -6.24826
H          3.02866       11.10670      -14.16255
N          1.38130       10.23166      -11.96610
C          0.55364        9.80300      -10.96693
H         -3.40771        2.26914       -6.22884
H         -3.10762        4.69954       -6.26283
C         -4.13795        9.61335       -5.32495
H         -4.85632       10.34671       -4.98141
C         -2.23595        7.82861       -6.30885
H          1.02112       12.31218      -10.53613
H          2.13920       10.95212      -11.92324
C          0.53776       10.38799       -9.63882
C          0.84649       11.74655       -9.62343
H         -1.52750        7.11268       -6.71550
C         -2.78553        9.78807       -5.09504
C          0.17938        9.70780       -8.42385
N         -1.82675        8.96244       -5.59746
C          0.86503       12.41781       -8.44384
H         -0.11971        8.66217       -8.47325
H          1.03218       13.48779       -8.42793
N          0.32413       10.38489       -7.22250
C          0.64934       11.71811       -7.27803
H         -2.47434       10.68855       -4.59689
Pd        -0.06277       10.01686       -5.20762
H          0.63479       12.31593       -6.39158
Pd        -5.38136       -8.97727       -2.68208
H         11.08220      -18.36339      -20.86071
H          6.71594      -18.50094      -23.33373
H          8.76285      -18.42185      -20.22316
H          6.92455      -18.53860      -20.89518
C         10.66435      -17.56773      -20.25789
C          6.46436      -17.62465      -22.75208
C          9.30874      -17.58109      -19.89349
C          6.60829      -17.63105      -21.35568
H         12.50978      -16.47017      -20.19532
C         11.47403      -16.51188      -19.87388
H          5.99569      -16.44422      -24.48634
C          6.04278      -16.47171      -23.40161
H          9.40580      -18.64538      -15.19832
N          8.76222      -16.61574      -19.08374
H          8.44690      -17.98196      -17.28668
N          6.27895      -16.54848      -20.58984
C          8.78686      -17.75737      -15.25346
H          2.51966      -18.62832      -18.33413
C         10.93269      -15.52290      -19.06872
H          4.79723      -17.98776      -18.92362
C          8.23402      -17.34820      -16.45047
C          5.74767      -15.34929      -22.63775
C          9.58670      -15.62560      -18.63435
C          5.81979      -15.42640      -21.21833
Pd         6.74554      -16.30681      -18.57858
H         13.39414      -14.25634      -20.05262
C          2.88165      -17.63169      -18.11025
C          4.16764      -17.25049      -18.45710
H          4.68966      -14.53039      -25.24373
H          8.98087      -17.36634      -13.19456
C          8.53325      -17.03519      -14.12965
C         11.69010      -14.33274      -18.69457
N         12.84186      -13.85622      -19.25974
C          5.43849      -14.05569      -23.26084
N          7.35504      -16.29866      -16.57730
N          4.93611      -13.82728      -24.51075
H          9.15380      -14.83022      -18.03674
H         15.11973      -12.50306      -20.49374
H          5.62896      -14.53803      -20.62815
C          2.06145      -16.74112      -17.46976
N          4.71684      -16.05404      -18.10388
H          3.47538      -13.20033      -26.91517
H          1.04458      -17.06472      -17.24916
N         11.20017      -13.53559      -17.73680
C          7.66581      -15.94684      -14.19100
C         13.07533      -12.70627      -18.59364
C          6.98840      -15.62579      -15.42027
C         15.02510      -11.68460      -19.78592
N          5.60451      -12.93050      -22.54431
C          4.71127      -12.49475      -24.53033
C          3.38316      -12.16150      -26.61113
C         12.06691      -12.54324      -17.67308
C         14.06528      -11.70734      -18.76491
C          3.90550      -15.13048      -17.43180
C          2.51818      -15.45143      -17.16719
H          9.44797      -15.52951      -11.99685
H         16.52805      -10.48390      -20.76510
C          7.48990      -15.25951      -12.91857
C         15.81299      -10.52929      -19.94965
C          4.02394      -11.68237      -25.46553
H          1.98685      -11.68050      -28.17680
C          5.15108      -11.97183      -23.33883
N          8.45932      -15.18733      -11.95616
C          2.52303      -11.29933      -27.31450
H         16.76690      -11.79072      -13.69172
H          6.27107      -14.80759      -15.42529
N          6.31378      -14.73922      -12.53627
H          4.26857      -14.15031      -17.14007
H         10.40739      -15.02381       -9.83161
C          1.43850      -14.56603      -16.62590
C         11.94686      -11.44750      -16.86211
C         14.00453      -10.60123      -17.87461
N          0.43387      -15.07872      -15.87030
H         15.89892      -10.78929      -15.79250
C          7.84943      -14.62517      -10.91085
C         16.28396      -10.81443      -13.66295
C         15.65340       -9.42397      -19.07983
C          9.64165      -14.63571       -9.16297
C          4.99407      -10.65187      -22.98620
C          3.86665      -10.30923      -25.12972
C          6.54704      -14.36867      -11.27267
H         10.01523      -11.92105      -15.96633
H         -1.50017      -16.12630      -14.25771
C         15.79170      -10.24758      -14.85834
C         12.95793      -10.49671      -16.95208
C          2.32858       -9.96433      -26.88143
C          8.33344      -14.37831       -9.60904
C         10.83789      -11.21728      -16.02712
N         14.80074       -9.50706      -18.01537
H         16.49553      -10.61476      -11.52558
H          5.81547      -10.76004      -20.97040
H          7.82819       -7.78056      -27.17613
C         16.13315      -10.13530      -12.43205
C          9.96744      -14.37442       -7.82065
H         10.98242      -14.54909       -7.47220
C          4.35307       -9.82874      -23.91470
N          1.22047      -13.25953      -16.95226
H          5.58498       -8.65522      -26.57474
C          5.34256      -10.14051      -21.72384
C         -0.42530      -14.06526      -15.71225
H         16.25666       -8.53828      -19.22617
H          3.39069      -16.79079       -4.47160
C         -2.07736      -15.20570      -14.28840
N          3.05789       -9.46618      -25.83865
H          3.87002      -13.99898      -11.65543
C          5.62389      -13.87264      -10.38032
H          5.23139      -15.72929       -5.78590
H          1.80661      -12.65500      -17.56829
H          1.64991       -9.32286      -27.42640
C          4.26157      -13.74548      -10.67604
C          7.39605      -13.84943       -8.69005
C          7.13921       -7.15947      -26.60582
H         -3.59965      -15.95721      -12.96208
C         -1.63072      -14.09035      -15.01396
C          5.86335       -7.65606      -26.26263
C          0.02813      -12.95414      -16.37917
H          1.44427      -10.00245      -23.68537
N         15.24725       -8.99536      -14.85188
N         12.86373       -9.37662      -16.23518
C         -3.26348      -15.11042      -13.55214
C          3.41525      -15.71276       -4.59623
C          8.98452      -13.87541       -6.93639
C          6.08525      -13.56259       -9.09400
C         10.76485      -10.02324      -15.30824
H         12.38768       -8.70933      -18.97084
C          4.44872      -15.11772       -5.35162
H         -0.80576      -10.42570      -22.73989
N          7.70963      -13.64162       -7.38101
C         15.45479       -8.89492      -12.40034
C          3.38462      -13.36177       -9.65969
N          4.05587       -8.57030      -23.58333
C          0.67879       -9.24091      -23.77441
Ru        14.35317       -7.96810      -16.54171
C          5.01903       -8.81881      -21.41259
C         11.80463       -9.10311      -15.42731
C         -0.59841       -9.47474      -23.22691
H          9.25911      -13.64588       -5.91629
C         12.60125       -7.65820      -19.08667
C         15.02913       -8.34705      -13.66487
H          2.32138      -13.30082       -9.85162
H          9.90624       -9.79898      -14.68686
N          5.23544      -13.10981       -8.16293
C          7.53377       -5.86880      -26.20363
H         11.17710       -7.42417      -20.69640
C          3.89353      -13.06047       -8.39109
H          8.53022       -5.51737      -26.45963
C         -2.41792      -12.92002      -15.03693
N          4.96453       -6.86359      -25.60885
C          2.41620      -14.91047       -4.00071
C         -0.74269      -11.76213      -16.41980
Ru         2.96482       -7.44689      -24.97097
C          4.36156       -8.04280      -22.36657
H          1.61103      -15.38456       -3.44987
C         -4.00592      -13.91749      -13.58350
H         -5.05429      -12.27333      -19.70903
N         15.36473       -8.36130       -9.87701
C         11.89902       -6.92714      -20.05751
H         -4.51422      -12.79511      -17.31819
C         15.10472       -8.15360      -11.20887
N          4.52698      -13.76147       -5.41471
H          5.24444       -8.40827      -20.43595
N         13.46277       -7.01945      -18.23991
N          0.97160       -8.03460      -24.33516
H          0.51960      -10.57181      -17.72472
Ru         6.11587      -12.62626       -6.30955
N         -3.59869      -12.88067      -14.37376
C         -1.97009      -11.74859      -15.69745
C         -1.58682       -8.46660      -23.27439
C         -0.40060      -10.61815      -17.15514
H         11.75670       -8.16170      -14.90041
C         -5.24308      -11.54612      -18.92826
H         -4.92281      -13.84815      -13.01637
H          3.22116      -12.75285       -7.60804
C         -4.95255      -11.84354      -17.57898
H         -2.55546       -8.66193      -22.82505
C         14.26144       -7.16126      -13.70880
C          6.65863       -5.09312      -25.41883
H          7.56768      -11.20285       -8.97620
C          5.35430       -5.63501      -25.14371
N         15.46297       -6.12769      -16.83390
H         17.01604       -6.42260      -15.42195
H         16.65512       -7.95931       -7.52648
C          2.45728      -13.51565       -4.17784
C          0.00066       -7.11032      -24.50231