140
	Energy:    1499.9785239
N         -3.32691       -0.27770       -1.18926
C         -2.18397        0.41815       -1.02813
C         -0.92366       -0.22117       -0.72854
C         -3.29753       -1.60284       -0.83383
C         -2.06355       -2.30197       -0.58089
C         -0.75617       -1.65729       -0.60869
H         -2.29780        1.50722       -1.06194
H         -0.10816        0.45955       -0.62316
H         -4.23052       -2.15204       -0.80147
H         -2.20411       -3.36110       -0.39106
C          0.63968       -2.49292       -0.63072
C          1.80468       -3.10486       -0.65458
C          3.21698       -3.93624       -0.68115
C          3.40848       -5.37594       -0.68713
C          4.52578       -3.31238       -0.81625
C          5.75754       -4.02907       -1.16083
N          5.82280       -5.37760       -1.42081
C          4.67940       -6.04134       -1.01104
H          4.72932       -7.12075       -0.92276
H          4.65202       -2.24069       -0.66393
H          6.69459       -3.48816       -1.17882
H          2.58219       -6.03180       -0.44261
Pd        -5.04076        0.85548       -1.40381
N         -5.68454        0.04960        0.26150
N         -6.70611        1.73122       -1.55414
C         -7.38910        1.72310       -0.28053
H         -6.36440        2.62671       -2.00744
C         -7.05132        0.44490        0.49249
H         -8.48659        1.73505       -0.48722
H         -7.06298        2.61094        0.29244
H         -7.70186       -0.37159        0.11282
H         -7.16675        0.59406        1.57627
H         -4.90099        0.31957        0.87642
H         -6.41049       -1.65430      -17.42973
H         -6.97958        0.08403      -17.63971
C         -6.13163       -0.57240      -17.39180
H         -5.62720       -1.63110      -13.59074
H         -6.22123       -0.99514      -11.36196
N         -5.70000       -0.25244      -16.04187
H         -5.24148       -0.93937      -19.35670
C         -5.00588       -0.42901      -18.39851
C         -5.09248       -0.79251      -13.17285
H         -5.66485        0.76229      -15.84923
H         -6.96394       -0.28007       -6.15319
C         -5.46629       -0.39426      -11.82627
N         -3.85249       -1.08805      -17.84621
H         -6.80958       -0.32839       -3.74150
H         -4.79319        0.64080      -18.55845
Pd        -3.81098       -0.58010      -16.01938
C         -6.24408        0.42034       -5.72569
H         -2.97354       -0.46665      -18.06442
N         -4.08177       -0.21347      -13.92149
C         -6.15450        0.36267       -4.27041
C         -4.87683        0.72256      -11.11030
C         -5.03599        0.97395       -9.48562
C         -5.22162        1.09550       -8.18026
C         -5.41242        1.29032       -6.55370
C         -3.73299        1.02201      -13.42246
N         -5.22341        1.08307       -3.53542
C         -4.09724        1.49223      -12.07075
H         -3.22843        1.68451      -14.13054
C         -4.71293        2.22022       -5.67634
C         -4.63160        2.08996       -4.22334
H         -3.72988        2.48925      -11.84158
H         -4.11468        2.82042       -3.60837
H         -4.16806        3.05314       -6.06515
H          7.81352       -8.85076        0.38823
H          8.61941      -11.88521      -17.09366
H          9.65999       -8.67100        0.38126
C          8.68949       -8.22270        0.12235
H          9.14419      -11.23736      -18.71779
H          8.16408       -7.05799        1.89330
C          9.01390      -11.00007      -17.64519
N          8.65688       -8.05360       -1.32180
C          8.55087       -6.87998        0.86842
H          7.35634       -8.69928       -3.73861
H          5.50420       -9.36774      -16.37596
H          3.50347       -8.11678      -16.82936
N          8.04170       -9.92334      -17.53554
H          8.03680       -9.24895       -5.98610
H         10.89833      -11.59227      -16.76506
H          9.52028       -7.86493       -1.89791
C         10.36262      -10.64416      -16.99694
C          7.86291       -7.93822       -4.31067
H          9.50045       -6.32654        0.89861
C          5.59592       -8.29241      -16.49084
N          7.55043       -6.02577        0.21379
H          8.15942       -9.17620      -18.24277
H         -1.08421       -5.03947      -16.99796
C          4.39783       -7.52644      -16.77922
C          8.30107       -8.26858       -5.64924
Pd         7.77524       -6.39513       -1.66821
N         10.15306       -9.93393      -15.67463
H         -3.01526       -3.61404      -16.55571
H         10.95408      -10.01512      -17.69741
H          8.67512      -10.27839      -11.03433
Pd         8.58185       -8.89945      -16.14217
N          8.08373       -6.70319       -3.71817
C         -0.85687       -3.98209      -16.86611
H         10.88193       -9.19732      -15.60019
N          6.83086       -7.71145      -16.23747
C         -2.03233       -3.14657      -16.56971
H          8.37479      -10.50276      -13.42658
C          4.37334       -6.08370      -16.96059
C          8.97323       -9.41669      -11.61764
C          9.02973       -7.40871       -6.50321
C          3.01559       -5.13227      -16.96718
C          8.76902       -9.56084      -13.04612
C          9.25226       -7.58412       -8.12377
C          1.88302       -4.42696      -16.96436
C          0.51006       -3.48551      -16.96442
C          9.00183       -5.93696       -4.36289
C          9.32927       -7.91317       -9.40287
C          6.93132       -6.42751      -16.69280
N         -1.98353       -1.79125      -16.26087
C          9.47495       -6.22215       -5.71700
C          5.76337       -5.61238      -17.02433
C          9.49542       -8.17784      -11.01034
N          8.98280       -8.54301      -13.95680
H          9.42054       -5.12555       -3.76981
H          7.95475       -6.06563      -16.80790
C          0.42619       -2.02596      -16.98396
C         -0.77838       -1.24256      -16.64304
H         10.19417       -5.49915       -6.09259
H          6.02329       -4.60379      -17.31248
C          9.99530       -7.32880      -12.05363
C          9.73163       -7.51166      -13.47738
H         -0.76168       -0.16331      -16.74838
H          1.28575       -1.44061      -17.24636
H         10.57026       -6.44995      -11.82655
H         10.15397       -6.85327      -14.23351
H          7.73766       -4.99736        0.31004
H         -5.58738       -0.98028        0.21777
H         -7.05866        0.85672       -1.99743
H          6.61667       -6.43375        0.46334
H          8.26504       -8.89081       -1.81326
H          7.13048      -10.33818      -17.29823
H          9.87708      -10.64057      -15.02575
H         -6.21292       -0.88550      -15.43048
H         -4.02509       -2.15960      -17.80691
